 BEGIN_INFO
   #
   # this is a Band-XCRYSDEN-Structure-File
   # aimed at Visualization of Fermi Surface
   #
   # Case:   Cu_fs.bxsf
   #
 Fermi Energy:         17.0688
 END_INFO
 BEGIN_BLOCK_BANDGRID_3D
 band_energies
 BANDGRID_3D_BANDS
    1
   31   31   31
  0.000000  0.000000  0.000000
 -1.000000 -1.000000  1.000000
  1.000000  1.000000  1.000000
 -1.000000  1.000000 -1.000000
BAND:  10
   14.9837   14.9804   14.9715   14.9603   14.9524   14.9561
   14.9801   15.0295   15.1017   15.1886   15.2804   15.3683
   15.4448   15.5038   15.7890   15.9882   15.7890   15.5038
   15.4448   15.3683   15.2804   15.1886   15.1017   15.0295
   14.9801   14.9561   14.9524   14.9603   14.9715   14.9804
   14.9837   14.9804   14.9896   14.9928   14.9922   14.9927
   15.0012   15.0254   15.0709   15.1370   15.2175   15.3036
   15.3863   15.4853   15.6761   15.9765   16.2262   16.1728
   15.8880   15.6527   15.5147   15.4065   15.3055   15.2102
   15.1262   15.0604   15.0172   14.9952   14.9878   14.9868
   14.9858   14.9804   14.9715   14.9928   15.0073   15.0170
   15.0257   15.0392   15.0647   15.1077   15.1693   15.2447
   15.3258   15.4042   15.6044   15.8871   16.2556   16.5925
   16.6609   16.4099   16.0687   15.8054   15.6225   15.4804
   15.3583   15.2511   15.1611   15.0922   15.0455   15.0173
   15.0002   14.9868   14.9715   14.9603   14.9922   15.0170
   15.0360   15.0522   15.0705   15.0975   15.1390   15.1972
   15.2686   15.3460   15.4606   15.7284   16.0775   16.5133
   16.9514   17.1634   16.9794   16.5833   16.2076   15.9248
   15.7156   15.5490   15.4081   15.2875   15.1878   15.1109
   15.0557   15.0173   14.9878   14.9603   14.9524   14.9927
   15.0257   15.0522   15.0745   15.0968   15.1249   15.1649
   15.2201   15.2884   15.3631   15.5226   15.8381   16.2410
   16.7382   17.2741   17.6525   17.5871   17.1676   16.6957
   16.3061   16.0113   15.7839   15.5986   15.4415   15.3078
   15.1975   15.1109   15.0455   14.9952   14.9524   14.9561
   15.0012   15.0392   15.0705   15.0968   15.1212   15.1490
   15.1864   15.2381   15.3034   15.3762   15.5716   15.9269
   16.3756   16.9265   17.5471   18.0951   18.2183   17.8146
   17.2601   16.7636   16.3708   16.0671   15.8252   15.6242
   15.4531   15.3078   15.1878   15.0922   15.0172   14.9561
   14.9801   15.0254   15.0647   15.0975   15.1249   15.1490
   15.1742   15.2067   15.2527   15.3139   15.3848   15.6027
   15.9923   16.4814   17.0789   17.7671   18.4603   18.8407
   18.5206   17.8983   17.2989   16.8012   16.4072   16.0945
   15.8390   15.6242   15.4415   15.2875   15.1611   15.0604
   14.9801   15.0295   15.0709   15.1077   15.1390   15.1649
   15.1864   15.2067   15.2311   15.2675   15.3212   15.3889
   15.6138   16.0341   16.5605   17.1989   17.9388   18.7351
   19.3894   19.2789   18.6107   17.9158   17.3126   16.8178
   16.4189   16.0945   15.8252   15.5986   15.4081   15.2511
   15.1262   15.0295   15.1017   15.1370   15.1693   15.1972
   15.2201   15.2381   15.2527   15.2675   15.2897   15.3292
   15.3894   15.6041   16.0545   16.6174   17.2926   18.0712
   18.9299   19.7835   20.0660   19.3982   18.6180   17.9149
   17.3157   16.8178   16.4072   16.0671   15.7839   15.5490
   15.3583   15.2102   15.1017   15.1886   15.2175   15.2447
   15.2686   15.2884   15.3034   15.3139   15.3212   15.3292
   15.3473   15.3896   15.5751   16.0596   16.6605   17.3687
   18.1741   19.0628   20.0047   20.7676   20.2612   19.4069
   18.6140   17.9149   17.3126   16.8012   16.3708   16.0113
   15.7156   15.4804   15.3055   15.1886   15.2804   15.3036
   15.3258   15.3460   15.3631   15.3762   15.3848   15.3889
   15.3894   15.3896   15.4013   15.5348   16.0679   16.7070
   17.4394   18.2556   19.1447   20.0903   21.0486   21.1975
   20.2792   19.4069   18.6180   17.9158   17.2989   16.7636
   16.3061   15.9248   15.6225   15.4065   15.2804   15.3683
   15.3863   15.4042   15.4606   15.5226   15.5716   15.6027
   15.6138   15.6041   15.5751   15.5348   15.6254   16.1450
   16.7936   17.5240   18.3222   19.1727   20.0506   20.9067
   21.6408   21.1975   20.2612   19.3982   18.6107   17.8983
   17.2601   16.6957   16.2076   15.8054   15.5147   15.3683
   15.4448   15.4853   15.6044   15.7284   15.8381   15.9269
   15.9923   16.0341   16.0545   16.0596   16.0679   16.1450
   16.4473   16.9876   17.6504   18.3775   19.1305   19.8594
   20.4848   20.9067   21.0486   20.7676   20.0660   19.2789
   18.5206   17.8146   17.1676   16.5833   16.0687   15.6527
   15.4448   15.5038   15.6761   15.8871   16.0775   16.2410
   16.3756   16.4814   16.5605   16.6174   16.6605   16.7070
   16.7936   16.9876   17.3475   17.8492   18.4222   18.9959
   19.4977   19.8594   20.0506   20.0903   20.0047   19.7835
   19.3894   18.8407   18.2183   17.5871   16.9794   16.4099
   15.8880   15.5038   15.7890   15.9765   16.2556   16.5133
   16.7382   16.9265   17.0789   17.1989   17.2926   17.3687
   17.4394   17.5240   17.6504   17.8492   18.1281   18.4528
   18.7612   18.9959   19.1305   19.1727   19.1447   19.0628
   18.9299   18.7351   18.4603   18.0951   17.6525   17.1634
   16.6609   16.1728   15.7890   15.9882   16.2262   16.5925
   16.9514   17.2741   17.5471   17.7671   17.9388   18.0712
   18.1741   18.2556   18.3222   18.3775   18.4222   18.4528
   18.4640   18.4528   18.4222   18.3775   18.3222   18.2556
   18.1741   18.0712   17.9388   17.7671   17.5471   17.2741
   16.9514   16.5925   16.2262   15.9882   15.7890   16.1728
   16.6609   17.1634   17.6525   18.0951   18.4603   18.7351
   18.9299   19.0628   19.1447   19.1727   19.1305   18.9959
   18.7612   18.4528   18.1281   17.8492   17.6504   17.5240
   17.4394   17.3687   17.2926   17.1989   17.0789   16.9265
   16.7382   16.5133   16.2556   15.9765   15.7890   15.5038
   15.8880   16.4099   16.9794   17.5871   18.2183   18.8407
   19.3894   19.7835   20.0047   20.0903   20.0506   19.8594
   19.4977   18.9959   18.4222   17.8492   17.3475   16.9876
   16.7936   16.7070   16.6605   16.6174   16.5605   16.4814
   16.3756   16.2410   16.0775   15.8871   15.6761   15.5038
   15.4448   15.6527   16.0687   16.5833   17.1676   17.8146
   18.5206   19.2789   20.0660   20.7676   21.0486   20.9067
   20.4848   19.8594   19.1305   18.3775   17.6504   16.9876
   16.4473   16.1450   16.0679   16.0596   16.0545   16.0341
   15.9923   15.9269   15.8381   15.7284   15.6044   15.4853
   15.4448   15.3683   15.5147   15.8054   16.2076   16.6957
   17.2601   17.8983   18.6107   19.3982   20.2612   21.1975
   21.6408   20.9067   20.0506   19.1727   18.3222   17.5240
   16.7936   16.1450   15.6254   15.5348   15.5751   15.6041
   15.6138   15.6027   15.5716   15.5226   15.4606   15.4042
   15.3863   15.3683   15.2804   15.4065   15.6225   15.9248
   16.3061   16.7636   17.2989   17.9158   18.6180   19.4069
   20.2792   21.1975   21.0486   20.0903   19.1447   18.2556
   17.4394   16.7070   16.0679   15.5348   15.4013   15.3896
   15.3894   15.3889   15.3848   15.3762   15.3631   15.3460
   15.3258   15.3036   15.2804   15.1886   15.3055   15.4804
   15.7156   16.0113   16.3708   16.8012   17.3126   17.9149
   18.6140   19.4069   20.2612   20.7676   20.0047   19.0628
   18.1741   17.3687   16.6605   16.0596   15.5751   15.3896
   15.3473   15.3292   15.3212   15.3139   15.3034   15.2884
   15.2686   15.2447   15.2175   15.1886   15.1017   15.2102
   15.3583   15.5490   15.7839   16.0671   16.4072   16.8178
   17.3157   17.9149   18.6180   19.3982   20.0660   19.7835
   18.9299   18.0712   17.2926   16.6174   16.0545   15.6041
   15.3894   15.3292   15.2897   15.2675   15.2527   15.2381
   15.2201   15.1972   15.1693   15.1370   15.1017   15.0295
   15.1262   15.2511   15.4081   15.5986   15.8252   16.0945
   16.4189   16.8178   17.3126   17.9158   18.6107   19.2789
   19.3894   18.7351   17.9388   17.1989   16.5605   16.0341
   15.6138   15.3889   15.3212   15.2675   15.2311   15.2067
   15.1864   15.1649   15.1390   15.1077   15.0709   15.0295
   14.9801   15.0604   15.1611   15.2875   15.4415   15.6242
   15.8390   16.0945   16.4072   16.8012   17.2989   17.8983
   18.5206   18.8407   18.4603   17.7671   17.0789   16.4814
   15.9923   15.6027   15.3848   15.3139   15.2527   15.2067
   15.1742   15.1490   15.1249   15.0975   15.0647   15.0254
   14.9801   14.9561   15.0172   15.0922   15.1878   15.3078
   15.4531   15.6242   15.8252   16.0671   16.3708   16.7636
   17.2601   17.8146   18.2183   18.0951   17.5471   16.9265
   16.3756   15.9269   15.5716   15.3762   15.3034   15.2381
   15.1864   15.1490   15.1212   15.0968   15.0705   15.0392
   15.0012   14.9561   14.9524   14.9952   15.0455   15.1109
   15.1975   15.3078   15.4415   15.5986   15.7839   16.0113
   16.3061   16.6957   17.1676   17.5871   17.6525   17.2741
   16.7382   16.2410   15.8381   15.5226   15.3631   15.2884
   15.2201   15.1649   15.1249   15.0968   15.0745   15.0522
   15.0257   14.9927   14.9524   14.9603   14.9878   15.0173
   15.0557   15.1109   15.1878   15.2875   15.4081   15.5490
   15.7156   15.9248   16.2076   16.5833   16.9794   17.1634
   16.9514   16.5133   16.0775   15.7284   15.4606   15.3460
   15.2686   15.1972   15.1390   15.0975   15.0705   15.0522
   15.0360   15.0170   14.9922   14.9603   14.9715   14.9868
   15.0002   15.0173   15.0455   15.0922   15.1611   15.2511
   15.3583   15.4804   15.6225   15.8054   16.0687   16.4099
   16.6609   16.5925   16.2556   15.8871   15.6044   15.4042
   15.3258   15.2447   15.1693   15.1077   15.0647   15.0392
   15.0257   15.0170   15.0073   14.9928   14.9715   14.9804
   14.9858   14.9868   14.9878   14.9952   15.0172   15.0604
   15.1262   15.2102   15.3055   15.4065   15.5147   15.6527
   15.8880   16.1728   16.2262   15.9765   15.6761   15.4853
   15.3863   15.3036   15.2175   15.1370   15.0709   15.0254
   15.0012   14.9927   14.9922   14.9928   14.9896   14.9804
   14.9837   14.9804   14.9715   14.9603   14.9524   14.9561
   14.9801   15.0295   15.1017   15.1886   15.2804   15.3683
   15.4448   15.5038   15.7890   15.9882   15.7890   15.5038
   15.4448   15.3683   15.2804   15.1886   15.1017   15.0295
   14.9801   14.9561   14.9524   14.9603   14.9715   14.9804
   14.9837   14.9804   14.9896   14.9928   14.9922   14.9927
   15.0012   15.0254   15.0709   15.1370   15.2175   15.3036
   15.3863   15.4853   15.6761   15.9765   16.2262   16.1728
   15.8880   15.6527   15.5147   15.4065   15.3055   15.2102
   15.1262   15.0604   15.0172   14.9952   14.9878   14.9868
   14.9858   14.9804   14.9896   14.9804   14.9858   14.9868
   14.9878   14.9952   15.0172   15.0604   15.1262   15.2102
   15.3055   15.4065   15.5147   15.6527   15.8880   16.1728
   16.2262   15.9765   15.6761   15.4853   15.3863   15.3036
   15.2175   15.1370   15.0709   15.0254   15.0012   14.9927
   14.9922   14.9928   14.9896   14.9928   14.9858   14.9928
   15.0009   15.0083   15.0201   15.0436   15.0858   15.1497
   15.2330   15.3309   15.4416   15.5750   15.7635   16.0513
   16.3905   16.5571   16.3905   16.0513   15.7635   15.5750
   15.4416   15.3309   15.2330   15.1497   15.0858   15.0436
   15.0201   15.0083   15.0009   14.9928   14.9922   14.9868
   15.0009   15.0170   15.0315   15.0480   15.0732   15.1142
   15.1753   15.2563   15.3554   15.4773   15.6455   15.8968
   16.2524   16.6684   16.9622   16.9033   16.5572   16.1758
   15.8830   15.6747   15.5156   15.3836   15.2711   15.1785
   15.1083   15.0601   15.0292   15.0083   14.9922   14.9927
   14.9878   15.0083   15.0315   15.0522   15.0731   15.0998
   15.1394   15.1974   15.2757   15.3756   15.5103   15.7173
   16.0260   16.4425   16.9356   17.3649   17.4533   17.1325
   16.6772   16.2788   15.9789   15.7541   15.5755   15.4260
   15.2997   15.1964   15.1171   15.0601   15.0201   14.9927
   15.0012   14.9952   15.0201   15.0480   15.0731   15.0968
   15.1238   15.1611   15.2152   15.2901   15.3898   15.5370
   15.7812   16.1389   16.6084   17.1704   17.7288   18.0098
   17.7639   17.2527   16.7534   16.3522   16.0464   15.8081
   15.6133   15.4489   15.3100   15.1964   15.1083   15.0436
   15.0012   15.0254   15.0172   15.0436   15.0732   15.0998
   15.1238   15.1490   15.1817   15.2298   15.2994   15.3972
   15.5543   15.8309   16.2306   16.7460   17.3662   18.0327
   18.5322   18.4413   17.8979   17.3045   16.7981   16.3985
   16.0862   15.8352   15.6261   15.4489   15.2997   15.1785
   15.0858   15.0254   15.0709   15.0604   15.0858   15.1142
   15.1394   15.1611   15.1817   15.2067   15.2446   15.3051
   15.3976   15.5597   15.8632   16.2997   16.8561   17.5242
   18.2711   18.9692   19.1454   18.6116   17.9331   17.3228
   16.8210   16.4206   16.0993   15.8352   15.6133   15.4260
   15.2711   15.1497   15.0709   15.1370   15.1262   15.1497
   15.1753   15.1974   15.2152   15.2298   15.2446   15.2675
   15.3113   15.3921   15.5525   15.8775   16.3483   16.9423
   17.6500   18.4518   19.2864   19.8216   19.3927   18.6412
   17.9334   17.3276   16.8280   16.4206   16.0862   15.8081
   15.5755   15.3836   15.2330   15.1370   15.2175   15.2102
   15.2330   15.2563   15.2757   15.2901   15.2994   15.3051
   15.3113   15.3292   15.3842   15.5336   15.8771   16.3819
   17.0114   17.7516   18.5877   19.4924   20.3363   20.2365
   19.4304   18.6351   17.9306   17.3276   16.8210   16.3985
   16.0464   15.7541   15.5156   15.3309   15.2175   15.3036
   15.3055   15.3309   15.3554   15.3756   15.3898   15.3972
   15.3976   15.3921   15.3842   15.3896   15.5068   15.8733
   16.4139   17.0753   17.8382   18.6894   19.6136   20.5756
   21.1081   20.3008   19.4282   18.6351   17.9334   17.3228
   16.7981   16.3522   15.9789   15.6747   15.4416   15.3036
   15.3863   15.4065   15.4416   15.4773   15.5103   15.5370
   15.5543   15.5597   15.5525   15.5336   15.5068   15.5348
   15.9120   16.4764   17.1545   17.9212   18.7616   19.6597
   20.5898   21.4924   21.2471   20.3008   19.4304   18.6412
   17.9331   17.3045   16.7534   16.2788   15.8830   15.5750
   15.3863   15.4853   15.5147   15.5750   15.6455   15.7173
   15.7812   15.8309   15.8632   15.8775   15.8771   15.8733
   15.9120   16.1450   16.6404   17.2837   18.0140   18.8013
   19.6153   20.4057   21.0815   21.4924   21.1081   20.2365
   19.3927   18.6116   17.8979   17.2527   16.6772   16.1758
   15.7635   15.4853   15.6761   15.6527   15.7635   15.8968
   16.0260   16.1389   16.2306   16.2997   16.3483   16.3819
   16.4139   16.4764   16.6404   16.9876   17.5076   18.1311
   18.7981   19.4503   20.0131   20.4057   20.5898   20.5756
   20.3363   19.8216   19.1454   18.4413   17.7639   17.1325
   16.5572   16.0513   15.6761   15.9765   15.8880   16.0513
   16.2524   16.4425   16.6084   16.7460   16.8561   16.9423
   17.0114   17.0753   17.1545   17.2837   17.5076   17.8492
   18.2805   18.7381   19.1490   19.4503   19.6153   19.6597
   19.6136   19.4924   19.2864   18.9692   18.5322   18.0098
   17.4533   16.9033   16.3905   15.9765   16.2262   16.1728
   16.3905   16.6684   16.9356   17.1704   17.3662   17.5242
   17.6500   17.7516   17.8382   17.9212   18.0140   18.1311
   18.2805   18.4528   18.6171   18.7381   18.7981   18.8013
   18.7616   18.6894   18.5877   18.4518   18.2711   18.0327
   17.7288   17.3649   16.9622   16.5571   16.2262   16.1728
   16.2262   16.5571   16.9622   17.3649   17.7288   18.0327
   18.2711   18.4518   18.5877   18.6894   18.7616   18.8013
   18.7981   18.7381   18.6171   18.4528   18.2805   18.1311
   18.0140   17.9212   17.8382   17.7516   17.6500   17.5242
   17.3662   17.1704   16.9356   16.6684   16.3905   16.1728
   15.8880   15.9765   16.3905   16.9033   17.4533   18.0098
   18.5322   18.9692   19.2864   19.4924   19.6136   19.6597
   19.6153   19.4503   19.1490   18.7381   18.2805   17.8492
   17.5076   17.2837   17.1545   17.0753   17.0114   16.9423
   16.8561   16.7460   16.6084   16.4425   16.2524   16.0513
   15.8880   15.6527   15.6761   16.0513   16.5572   17.1325
   17.7639   18.4413   19.1454   19.8216   20.3363   20.5756
   20.5898   20.4057   20.0131   19.4503   18.7981   18.1311
   17.5076   16.9876   16.6404   16.4764   16.4139   16.3819
   16.3483   16.2997   16.2306   16.1389   16.0260   15.8968
   15.7635   15.6527   15.5147   15.4853   15.7635   16.1758
   16.6772   17.2527   17.8979   18.6116   19.3927   20.2365
   21.1081   21.4924   21.0815   20.4057   19.6153   18.8013
   18.0140   17.2837   16.6404   16.1450   15.9120   15.8733
   15.8771   15.8775   15.8632   15.8309   15.7812   15.7173
   15.6455   15.5750   15.5147   15.4065   15.3863   15.5750
   15.8830   16.2788   16.7534   17.3045   17.9331   18.6412
   19.4304   20.3008   21.2471   21.4924   20.5898   19.6597
   18.7616   17.9212   17.1545   16.4764   15.9120   15.5348
   15.5068   15.5336   15.5525   15.5597   15.5543   15.5370
   15.5103   15.4773   15.4416   15.4065   15.3055   15.3036
   15.4416   15.6747   15.9789   16.3522   16.7981   17.3228
   17.9334   18.6351   19.4282   20.3008   21.1081   20.5756
   19.6136   18.6894   17.8382   17.0753   16.4139   15.8733
   15.5068   15.3896   15.3842   15.3921   15.3976   15.3972
   15.3898   15.3756   15.3554   15.3309   15.3055   15.2102
   15.2175   15.3309   15.5156   15.7541   16.0464   16.3985
   16.8210   17.3276   17.9306   18.6351   19.4304   20.2365
   20.3363   19.4924   18.5877   17.7516   17.0114   16.3819
   15.8771   15.5336   15.3842   15.3292   15.3113   15.3051
   15.2994   15.2901   15.2757   15.2563   15.2330   15.2102
   15.1262   15.1370   15.2330   15.3836   15.5755   15.8081
   16.0862   16.4206   16.8280   17.3276   17.9334   18.6412
   19.3927   19.8216   19.2864   18.4518   17.6500   16.9423
   16.3483   15.8775   15.5525   15.3921   15.3113   15.2675
   15.2446   15.2298   15.2152   15.1974   15.1753   15.1497
   15.1262   15.0604   15.0709   15.1497   15.2711   15.4260
   15.6133   15.8352   16.0993   16.4206   16.8210   17.3228
   17.9331   18.6116   19.1454   18.9692   18.2711   17.5242
   16.8561   16.2997   15.8632   15.5597   15.3976   15.3051
   15.2446   15.2067   15.1817   15.1611   15.1394   15.1142
   15.0858   15.0604   15.0172   15.0254   15.0858   15.1785
   15.2997   15.4489   15.6261   15.8352   16.0862   16.3985
   16.7981   17.3045   17.8979   18.4413   18.5322   18.0327
   17.3662   16.7460   16.2306   15.8309   15.5543   15.3972
   15.2994   15.2298   15.1817   15.1490   15.1238   15.0998
   15.0732   15.0436   15.0172   14.9952   15.0012   15.0436
   15.1083   15.1964   15.3100   15.4489   15.6133   15.8081
   16.0464   16.3522   16.7534   17.2527   17.7639   18.0098
   17.7288   17.1704   16.6084   16.1389   15.7812   15.5370
   15.3898   15.2901   15.2152   15.1611   15.1238   15.0968
   15.0731   15.0480   15.0201   14.9952   14.9878   14.9927
   15.0201   15.0601   15.1171   15.1964   15.2997   15.4260
   15.5755   15.7541   15.9789   16.2788   16.6772   17.1325
   17.4533   17.3649   16.9356   16.4425   16.0260   15.7173
   15.5103   15.3756   15.2757   15.1974   15.1394   15.0998
   15.0731   15.0522   15.0315   15.0083   14.9878   14.9868
   14.9922   15.0083   15.0292   15.0601   15.1083   15.1785
   15.2711   15.3836   15.5156   15.6747   15.8830   16.1758
   16.5572   16.9033   16.9622   16.6684   16.2524   15.8968
   15.6455   15.4773   15.3554   15.2563   15.1753   15.1142
   15.0732   15.0480   15.0315   15.0170   15.0009   14.9868
   14.9858   14.9928   15.0009   15.0083   15.0201   15.0436
   15.0858   15.1497   15.2330   15.3309   15.4416   15.5750
   15.7635   16.0513   16.3905   16.5571   16.3905   16.0513
   15.7635   15.5750   15.4416   15.3309   15.2330   15.1497
   15.0858   15.0436   15.0201   15.0083   15.0009   14.9928
   14.9858   14.9804   14.9896   14.9928   14.9922   14.9927
   15.0012   15.0254   15.0709   15.1370   15.2175   15.3036
   15.3863   15.4853   15.6761   15.9765   16.2262   16.1728
   15.8880   15.6527   15.5147   15.4065   15.3055   15.2102
   15.1262   15.0604   15.0172   14.9952   14.9878   14.9868
   14.9858   14.9804   14.9715   14.9928   15.0073   15.0170
   15.0257   15.0392   15.0647   15.1077   15.1693   15.2447
   15.3258   15.4042   15.6044   15.8871   16.2556   16.5925
   16.6609   16.4099   16.0687   15.8054   15.6225   15.4804
   15.3583   15.2511   15.1611   15.0922   15.0455   15.0173
   15.0002   14.9868   14.9715   14.9928   14.9858   14.9928
   15.0009   15.0083   15.0201   15.0436   15.0858   15.1497
   15.2330   15.3309   15.4416   15.5750   15.7635   16.0513
   16.3905   16.5571   16.3905   16.0513   15.7635   15.5750
   15.4416   15.3309   15.2330   15.1497   15.0858   15.0436
   15.0201   15.0083   15.0009   14.9928   15.0073   14.9928
   14.9715   14.9868   15.0002   15.0173   15.0455   15.0922
   15.1611   15.2511   15.3583   15.4804   15.6225   15.8054
   16.0687   16.4099   16.6609   16.5925   16.2556   15.8871
   15.6044   15.4042   15.3258   15.2447   15.1693   15.1077
   15.0647   15.0392   15.0257   15.0170   15.0073   15.0170
   15.0009   14.9868   14.9922   15.0083   15.0292   15.0601
   15.1083   15.1785   15.2711   15.3836   15.5156   15.6747
   15.8830   16.1758   16.5572   16.9033   16.9622   16.6684
   16.2524   15.8968   15.6455   15.4773   15.3554   15.2563
   15.1753   15.1142   15.0732   15.0480   15.0315   15.0170
   15.0257   15.0083   15.0002   15.0083   15.0257   15.0480
   15.0791   15.1259   15.1946   15.2872   15.4033   15.5451
   15.7243   15.9666   16.3039   16.7409   17.1885   17.4024
   17.1885   16.7409   16.3039   15.9666   15.7243   15.5451
   15.4033   15.2872   15.1946   15.1259   15.0791   15.0480
   15.0257   15.0392   15.0201   15.0173   15.0292   15.0480
   15.0705   15.0998   15.1429   15.2074   15.2979   15.4160
   15.5670   15.7673   16.0451   16.4281   16.9207   17.4637
   17.8520   17.7698   17.3103   16.7931   16.3597   16.0320
   15.7863   15.5938   15.4363   15.3062   15.2027   15.1259
   15.0732   15.0392   15.0647   15.0436   15.0455   15.0601
   15.0791   15.0998   15.1249   15.1611   15.2178   15.3030
   15.4209   15.5797   15.8003   16.1124   16.5380   17.0809
   17.7047   18.2648   18.3849   17.9484   17.3576   16.8257
   16.4024   16.0778   15.8245   15.6190   15.4478   15.3062
   15.1946   15.1142   15.0647   15.1077   15.0858   15.0922
   15.1083   15.1259   15.1429   15.1611   15.1864   15.2298
   15.3038   15.4178   15.5822   15.8216   16.1654   16.6301
   17.2171   17.9043   18.6060   18.9952   18.6493   17.9962
   17.3682   16.8438   16.4282   16.1010   15.8373   15.6190
   15.4363   15.2872   15.1753   15.1077   15.1693   15.1497
   15.1611   15.1785   15.1946   15.2074   15.2178   15.2298
   15.2527   15.3051   15.4074   15.5744   15.8307   16.2043
   16.7053   17.3309   18.0658   18.8647   19.5309   19.4054
   18.7096   17.9919   17.3666   16.8517   16.4368   16.1010
   15.8245   15.5938   15.4033   15.2563   15.1693   15.2447
   15.2330   15.2511   15.2711   15.2872   15.2979   15.3030
   15.3038   15.3051   15.3212   15.3921   15.5569   15.8305
   16.2332   16.7685   17.4280   18.1978   19.0532   19.9119
   20.1929   19.4985   18.7005   17.9807   17.3649   16.8517
   16.4282   16.0778   15.7863   15.5451   15.3554   15.2447
   15.3258   15.3309   15.3583   15.3836   15.4033   15.4160
   15.4209   15.4178   15.4074   15.3921   15.3894   15.5336
   15.8315   16.2638   16.8305   17.5174   18.3095   19.1902
   20.1291   20.8965   20.3632   19.4956   18.6914   17.9807
   17.3666   16.8438   16.4024   16.0320   15.7243   15.4773
   15.3258   15.4042   15.4416   15.4804   15.5156   15.5451
   15.5670   15.5797   15.5822   15.5744   15.5569   15.5336
   15.5751   15.8733   16.3244   16.9115   17.6128   18.4095
   19.2860   20.2238   21.1787   21.3016   20.3738   19.4956
   18.7005   17.9919   17.3682   16.8257   16.3597   15.9666
   15.6455   15.4042   15.6044   15.5750   15.6225   15.6747
   15.7243   15.7673   15.8003   15.8216   15.8307   15.8305
   15.8315   15.8733   16.0679   16.4764   17.0471   17.7327
   18.5039   19.3373   20.2039   21.0518   21.7763   21.3016
   20.3632   19.4985   18.7096   17.9962   17.3576   16.7931
   16.3039   15.8968   15.6044   15.8871   15.7635   15.8054
   15.8830   15.9666   16.0451   16.1124   16.1654   16.2043
   16.2332   16.2638   16.3244   16.4764   16.7936   17.2837
   17.8998   18.5947   19.3260   20.0388   20.6485   21.0518
   21.1787   20.8965   20.1929   19.4054   18.6493   17.9484
   17.3103   16.7409   16.2524   15.8871   16.2556   16.0513
   16.0687   16.1758   16.3039   16.4281   16.5380   16.6301
   16.7053   16.7685   16.8305   16.9115   17.0471   17.2837
   17.6504   18.1311   18.6771   19.2259   19.7034   20.0388
   20.2039   20.2238   20.1291   19.9119   19.5309   18.9952
   18.3849   17.7698   17.1885   16.6684   16.2556   16.5925
   16.3905   16.4099   16.5572   16.7409   16.9207   17.0809
   17.2171   17.3309   17.4280   17.5174   17.6128   17.7327
   17.8998   18.1311   18.4222   18.7381   19.0232   19.2259
   19.3260   19.3373   19.2860   19.1902   19.0532   18.8647
   18.6060   18.2648   17.8520   17.4024   16.9622   16.5925
   16.6609   16.5571   16.6609   16.9033   17.1885   17.4637
   17.7047   17.9043   18.0658   18.1978   18.3095   18.4095
   18.5039   18.5947   18.6771   18.7381   18.7612   18.7381
   18.6771   18.5947   18.5039   18.4095   18.3095   18.1978
   18.0658   17.9043   17.7047   17.4637   17.1885   16.9033
   16.6609   16.4099   16.3905   16.5925   16.9622   17.4024
   17.8520   18.2648   18.6060   18.8647   19.0532   19.1902
   19.2860   19.3373   19.3260   19.2259   19.0232   18.7381
   18.4222   18.1311   17.8998   17.7327   17.6128   17.5174
   17.4280   17.3309   17.2171   17.0809   16.9207   16.7409
   16.5572   16.4099   16.0687   16.0513   16.2556   16.6684
   17.1885   17.7698   18.3849   18.9952   19.5309   19.9119
   20.1291   20.2238   20.2039   20.0388   19.7034   19.2259
   18.6771   18.1311   17.6504   17.2837   17.0471   16.9115
   16.8305   16.7685   16.7053   16.6301   16.5380   16.4281
   16.3039   16.1758   16.0687   15.8054   15.7635   15.8871
   16.2524   16.7409   17.3103   17.9484   18.6493   19.4054
   20.1929   20.8965   21.1787   21.0518   20.6485   20.0388
   19.3260   18.5947   17.8998   17.2837   16.7936   16.4764
   16.3244   16.2638   16.2332   16.2043   16.1654   16.1124
   16.0451   15.9666   15.8830   15.8054   15.6225   15.5750
   15.6044   15.8968   16.3039   16.7931   17.3576   17.9962
   18.7096   19.4985   20.3632   21.3016   21.7763   21.0518
   20.2039   19.3373   18.5039   17.7327   17.0471   16.4764
   16.0679   15.8733   15.8315   15.8305   15.8307   15.8216
   15.8003   15.7673   15.7243   15.6747   15.6225   15.4804
   15.4416   15.4042   15.6455   15.9666   16.3597   16.8257
   17.3682   17.9919   18.7005   19.4956   20.3738   21.3016
   21.1787   20.2238   19.2860   18.4095   17.6128   16.9115
   16.3244   15.8733   15.5751   15.5336   15.5569   15.5744
   15.5822   15.5797   15.5670   15.5451   15.5156   15.4804
   15.3583   15.3309   15.3258   15.4773   15.7243   16.0320
   16.4024   16.8438   17.3666   17.9807   18.6914   19.4956
   20.3632   20.8965   20.1291   19.1902   18.3095   17.5174
   16.8305   16.2638   15.8315   15.5336   15.3894   15.3921
   15.4074   15.4178   15.4209   15.4160   15.4033   15.3836
   15.3583   15.2511   15.2330   15.2447   15.3554   15.5451
   15.7863   16.0778   16.4282   16.8517   17.3649   17.9807
   18.7005   19.4985   20.1929   19.9119   19.0532   18.1978
   17.4280   16.7685   16.2332   15.8305   15.5569   15.3921
   15.3212   15.3051   15.3038   15.3030   15.2979   15.2872
   15.2711   15.2511   15.1611   15.1497   15.1693   15.2563
   15.4033   15.5938   15.8245   16.1010   16.4368   16.8517
   17.3666   17.9919   18.7096   19.4054   19.5309   18.8647
   18.0658   17.3309   16.7053   16.2043   15.8307   15.5744
   15.4074   15.3051   15.2527   15.2298   15.2178   15.2074
   15.1946   15.1785   15.1611   15.0922   15.0858   15.1077
   15.1753   15.2872   15.4363   15.6190   15.8373   16.1010
   16.4282   16.8438   17.3682   17.9962   18.6493   18.9952
   18.6060   17.9043   17.2171   16.6301   16.1654   15.8216
   15.5822   15.4178   15.3038   15.2298   15.1864   15.1611
   15.1429   15.1259   15.1083   15.0922   15.0455   15.0436
   15.0647   15.1142   15.1946   15.3062   15.4478   15.6190
   15.8245   16.0778   16.4024   16.8257   17.3576   17.9484
   18.3849   18.2648   17.7047   17.0809   16.5380   16.1124
   15.8003   15.5797   15.4209   15.3030   15.2178   15.1611
   15.1249   15.0998   15.0791   15.0601   15.0455   15.0173
   15.0201   15.0392   15.0732   15.1259   15.2027   15.3062
   15.4363   15.5938   15.7863   16.0320   16.3597   16.7931
   17.3103   17.7698   17.8520   17.4637   16.9207   16.4281
   16.0451   15.7673   15.5670   15.4160   15.2979   15.2074
   15.1429   15.0998   15.0705   15.0480   15.0292   15.0173
   15.0002   15.0083   15.0257   15.0480   15.0791   15.1259
   15.1946   15.2872   15.4033   15.5451   15.7243   15.9666
   16.3039   16.7409   17.1885   17.4024   17.1885   16.7409
   16.3039   15.9666   15.7243   15.5451   15.4033   15.2872
   15.1946   15.1259   15.0791   15.0480   15.0257   15.0083
   15.0002   14.9868   15.0009   15.0170   15.0315   15.0480
   15.0732   15.1142   15.1753   15.2563   15.3554   15.4773
   15.6455   15.8968   16.2524   16.6684   16.9622   16.9033
   16.5572   16.1758   15.8830   15.6747   15.5156   15.3836
   15.2711   15.1785   15.1083   15.0601   15.0292   15.0083
   14.9922   14.9868   14.9715   14.9928   15.0073   15.0170
   15.0257   15.0392   15.0647   15.1077   15.1693   15.2447